# vtk DataFile Version 1.0
2D Unstructured Grid of Linear Triangles
ASCII

DATASET UNSTRUCTURED_GRID
POINTS        275 float
         2.7244       -11.4906         0.0000
         5.2100       -10.5827         0.0000
         7.6548        -9.8320         0.0000
        10.1021        -9.1323         0.0000
        12.5519        -8.4577         0.0000
        15.0005        -7.7996         0.0000
        17.4450        -7.1557         0.0000
        19.8833        -6.5262         0.0000
        22.3143        -5.9126         0.0000
        24.7371        -5.3168         0.0000
        27.1515        -4.7410         0.0000
        29.5570        -4.1874         0.0000
        31.9536        -3.6585         0.0000
        34.3413        -3.1564         0.0000
        36.7200        -2.6835         0.0000
        39.0896        -2.2420         0.0000
        41.4503        -1.8342         0.0000
        43.8020        -1.4624         0.0000
        46.1447        -1.1288         0.0000
        48.4785        -0.8355         0.0000
        50.8034        -0.5846         0.0000
        53.1194        -0.3775         0.0000
        55.4261        -0.2148         0.0000
        57.7213        -0.0941         0.0000
        60.0000         0.0000         0.0000
         2.1031        -9.3657         0.0000
         4.5834        -8.5678         0.0000
         7.0734        -7.8240         0.0000
         9.5504        -7.1255         0.0000
        12.0195        -6.4509         0.0000
        14.4826        -5.7923         0.0000
        16.9399        -5.1476         0.0000
        19.3913        -4.5171         0.0000
        21.8363        -3.9023         0.0000
        24.2746        -3.3053         0.0000
        26.7060        -2.7282         0.0000
        29.1304        -2.1734         0.0000
        31.5476        -1.6432         0.0000
        33.9577        -1.1398         0.0000
        36.3606        -0.6656         0.0000
        38.7564        -0.2228         0.0000
        41.1449         0.1863         0.0000
        43.5262         0.5594         0.0000
        45.9003         0.8943         0.0000
        48.2671         1.1889         0.0000
        50.6267         1.4411         0.0000
        52.9789         1.6491         0.0000
        55.3239         1.8120         0.0000
        57.6627         1.9293         0.0000
        60.0000         2.0000         0.0000
         1.5366        -7.2713         0.0000
         4.0211        -6.5397         0.0000
         6.5187        -5.8190         0.0000
         9.0116        -5.1233         0.0000
        11.4959        -4.4480         0.0000
        13.9727        -3.7882         0.0000
        16.4433        -3.1422         0.0000
        18.9082        -2.5105         0.0000
        21.3676        -1.8947         0.0000
        23.8217        -1.2966         0.0000
        26.2704        -0.7184         0.0000
        28.7137        -0.1626         0.0000
        31.1517         0.3687         0.0000
        33.5843         0.8731         0.0000
        36.0114         1.3483         0.0000
        38.4332         1.7921         0.0000
        40.8496         2.2022         0.0000
        43.2606         2.5763         0.0000
        45.6661         2.9123         0.0000
        48.0662         3.2078         0.0000
        50.4608         3.4608         0.0000
        52.8500         3.6692         0.0000
        55.2347         3.8308         0.0000
        57.6166         3.9432         0.0000
        60.0000         4.0000         0.0000
         1.0024        -5.2010         0.0000
         3.4907        -4.5101         0.0000
         5.9895        -3.8110         0.0000
         8.4888        -3.1222         0.0000
        10.9831        -2.4475         0.0000
        13.4714        -1.7867         0.0000
        15.9543        -1.1395         0.0000
        18.4325        -0.5066         0.0000
        20.9063         0.1103         0.0000
        23.3762         0.7094         0.0000
        25.8422         1.2883         0.0000
        28.3046         1.8450         0.0000
        30.7633         2.3770         0.0000
        33.2184         2.8822         0.0000
        35.6698         3.3581         0.0000
        38.1177         3.8026         0.0000
        40.5620         4.2134         0.0000
        43.0026         4.5883         0.0000
        45.4397         4.9250         0.0000
        47.8731         5.2212         0.0000
        50.3029         5.4747         0.0000
        52.7294         5.6829         0.0000
        55.1531         5.8431         0.0000
        57.5758         5.9511         0.0000
        60.0000         6.0000         0.0000
         0.4866        -3.1500         0.0000
         2.9780        -2.4837         0.0000
         5.4773        -1.8014         0.0000
         7.9795        -1.1204         0.0000
        10.4802        -0.4481         0.0000
        12.9777         0.2128         0.0000
        15.4716         0.8609         0.0000
        17.9623         1.4948         0.0000
        20.4503         2.1126         0.0000
        22.9358         2.7125         0.0000
        25.4191         3.2921         0.0000
        27.9005         3.8493         0.0000
        30.3799         4.3819         0.0000
        32.8575         4.8875         0.0000
        35.3333         5.3639         0.0000
        37.8072         5.8089         0.0000
        40.2794         6.2201         0.0000
        42.7498         6.5954         0.0000
        45.2184         6.9325         0.0000
        47.6852         7.2291         0.0000
        50.1503         7.4828         0.0000
        52.6137         7.6908         0.0000
        55.0759         7.8498         0.0000
        57.5375         7.9552         0.0000
        60.0000         8.0000         0.0000
        -0.0194        -1.1144         0.0000
         2.4747        -0.4623         0.0000
         4.9748         0.2079         0.0000
         7.4790         0.8817         0.0000
         9.9845         1.5509         0.0000
        12.4894         2.2111         0.0000
        14.9931         2.8595         0.0000
        17.4957         3.4940         0.0000
        19.9972         4.1125         0.0000
        22.4982         4.7128         0.0000
        24.9987         5.2929         0.0000
        27.4990         5.8505         0.0000
        29.9991         6.3833         0.0000
        32.4992         6.8891         0.0000
        34.9992         7.3657         0.0000
        37.4993         7.8108         0.0000
        39.9994         8.2221         0.0000
        42.4995         8.5976         0.0000
        44.9997         8.9348         0.0000
        47.4999         9.2314         0.0000
        50.0002         9.4852         0.0000
        52.5004         9.6933         0.0000
        55.0005         9.8520         0.0000
        57.5003         9.9565         0.0000
        60.0000        10.0000         0.0000
        -0.5213         0.9087         0.0000
         1.9752         1.5536         0.0000
         4.4765         2.2157         0.0000
         6.9827         2.8835         0.0000
         9.4922         3.5495         0.0000
        12.0037         4.2084         0.0000
        14.5163         4.8566         0.0000
        17.0300         5.4913         0.0000
        19.5447         6.1100         0.0000
        22.0608         6.7106         0.0000
        24.5783         7.2908         0.0000
        27.0975         7.8484         0.0000
        29.6183         8.3812         0.0000
        32.1408         8.8869         0.0000
        34.6652         9.3634         0.0000
        37.1914         9.8084         0.0000
        39.7193        10.2196         0.0000
        42.2492        10.5948         0.0000
        44.7809        10.9318         0.0000
        47.3144        11.2284         0.0000
        49.8499        11.4821         0.0000
        52.3870        11.6904         0.0000
        54.9252        11.8498         0.0000
        57.4632        11.9553         0.0000
        60.0000        12.0000         0.0000
        -1.0233         2.9219         0.0000
         1.4752         3.5641         0.0000
         3.9781         4.2211         0.0000
         6.4865         4.8845         0.0000
         8.9997         5.5476         0.0000
        11.5171         6.2049         0.0000
        14.0381         6.8524         0.0000
        16.5625         7.4869         0.0000
        19.0901         8.1055         0.0000
        21.6211         8.7060         0.0000
        24.1555         9.2860         0.0000
        26.6934         9.8433         0.0000
        29.2349        10.3757         0.0000
        31.7800        10.8811         0.0000
        34.3286        11.3571         0.0000
        36.8808        11.8016         0.0000
        39.4367        12.2124         0.0000
        41.9962        12.5871         0.0000
        44.5594        12.9237         0.0000
        47.1262        13.2198         0.0000
        49.6968        13.4733         0.0000
        52.2710        13.6819         0.0000
        54.8478        13.8428         0.0000
        57.4251        13.9515         0.0000
        60.0000        14.0000         0.0000
        -1.5285         4.9277         0.0000
         0.9717         5.5701         0.0000
         3.4761         6.2240         0.0000
         5.9865         6.8842         0.0000
         8.5033         7.5448         0.0000
        11.0264         8.2006         0.0000
        13.5554         8.8471         0.0000
        16.0901         9.4809         0.0000
        18.6305        10.0990         0.0000
        21.1763        10.6989         0.0000
        23.7276        11.2783         0.0000
        26.2843        11.8350         0.0000
        28.8464        12.3668         0.0000
        31.4140        12.8714         0.0000
[...]
POINT_DATA        275
VECTORS displacement float
          0.2724E-01         -0.1149E+00          0.0000E+00
          0.2710E-01         -0.1058E+00          0.0000E+00
          0.2655E-01         -0.9832E-01          0.0000E+00
          0.2602E-01         -0.9132E-01          0.0000E+00
          0.2552E-01         -0.8458E-01          0.0000E+00
          0.2501E-01         -0.7800E-01          0.0000E+00
          0.2445E-01         -0.7156E-01          0.0000E+00
          0.2383E-01         -0.6526E-01          0.0000E+00
          0.2314E-01         -0.5913E-01          0.0000E+00
          0.2237E-01         -0.5317E-01          0.0000E+00
          0.2151E-01         -0.4741E-01          0.0000E+00
          0.2057E-01         -0.4187E-01          0.0000E+00
          0.1954E-01         -0.3658E-01          0.0000E+00
          0.1841E-01         -0.3156E-01          0.0000E+00
          0.1720E-01         -0.2683E-01          0.0000E+00
          0.1590E-01         -0.2242E-01          0.0000E+00
          0.1450E-01         -0.1834E-01          0.0000E+00
          0.1302E-01         -0.1462E-01          0.0000E+00
          0.1145E-01         -0.1129E-01          0.0000E+00
          0.9785E-02         -0.8355E-02          0.0000E+00
          0.8034E-02         -0.5846E-02          0.0000E+00
          0.6194E-02         -0.3775E-02          0.0000E+00
          0.4261E-02         -0.2148E-02          0.0000E+00
          0.2213E-02         -0.9410E-03          0.0000E+00
          0.0000E+00          0.0000E+00          0.0000E+00
          0.2103E-01         -0.1137E+00          0.0000E+00
          0.2083E-01         -0.1057E+00          0.0000E+00
          0.2073E-01         -0.9824E-01          0.0000E+00
          0.2050E-01         -0.9126E-01          0.0000E+00
          0.2019E-01         -0.8451E-01          0.0000E+00
          0.1983E-01         -0.7792E-01          0.0000E+00
          0.1940E-01         -0.7148E-01          0.0000E+00
          0.1891E-01         -0.6517E-01          0.0000E+00
          0.1836E-01         -0.5902E-01          0.0000E+00
          0.1775E-01         -0.5305E-01          0.0000E+00
          0.1706E-01         -0.4728E-01          0.0000E+00
          0.1630E-01         -0.4173E-01          0.0000E+00
          0.1548E-01         -0.3643E-01          0.0000E+00
          0.1458E-01         -0.3140E-01          0.0000E+00
          0.1361E-01         -0.2666E-01          0.0000E+00
          0.1256E-01         -0.2223E-01          0.0000E+00
          0.1145E-01         -0.1814E-01          0.0000E+00
          0.1026E-01         -0.1441E-01          0.0000E+00
          0.9003E-02         -0.1106E-01          0.0000E+00
          0.7671E-02         -0.8111E-02          0.0000E+00
          0.6267E-02         -0.5589E-02          0.0000E+00
          0.4789E-02         -0.3509E-02          0.0000E+00
          0.3239E-02         -0.1880E-02          0.0000E+00
          0.1627E-02         -0.7068E-03          0.0000E+00
          0.0000E+00          0.0000E+00          0.0000E+00
          0.1537E-01         -0.1127E+00          0.0000E+00
          0.1521E-01         -0.1054E+00          0.0000E+00
          0.1519E-01         -0.9819E-01          0.0000E+00
          0.1512E-01         -0.9123E-01          0.0000E+00
          0.1496E-01         -0.8448E-01          0.0000E+00
          0.1473E-01         -0.7788E-01          0.0000E+00
          0.1443E-01         -0.7142E-01          0.0000E+00
          0.1408E-01         -0.6511E-01          0.0000E+00
          0.1368E-01         -0.5895E-01          0.0000E+00
          0.1322E-01         -0.5297E-01          0.0000E+00
          0.1270E-01         -0.4718E-01          0.0000E+00
          0.1214E-01         -0.4163E-01          0.0000E+00
          0.1152E-01         -0.3631E-01          0.0000E+00
          0.1084E-01         -0.3127E-01          0.0000E+00
          0.1011E-01         -0.2652E-01          0.0000E+00
          0.9332E-02         -0.2208E-01          0.0000E+00
          0.8496E-02         -0.1798E-01          0.0000E+00
          0.7606E-02         -0.1424E-01          0.0000E+00
          0.6661E-02         -0.1088E-01          0.0000E+00
          0.5662E-02         -0.7922E-02          0.0000E+00
          0.4608E-02         -0.5392E-02          0.0000E+00
          0.3500E-02         -0.3308E-02          0.0000E+00
          0.2347E-02         -0.1692E-02          0.0000E+00
          0.1166E-02         -0.5682E-03          0.0000E+00
          0.0000E+00          0.0000E+00          0.0000E+00
          0.1002E-01         -0.1120E+00          0.0000E+00
          0.9907E-02         -0.1051E+00          0.0000E+00
          0.9895E-02         -0.9811E-01          0.0000E+00
          0.9888E-02         -0.9122E-01          0.0000E+00
          0.9831E-02         -0.8448E-01          0.0000E+00
          0.9714E-02         -0.7787E-01          0.0000E+00
          0.9543E-02         -0.7139E-01          0.0000E+00
          0.9325E-02         -0.6507E-01          0.0000E+00
          0.9063E-02         -0.5890E-01          0.0000E+00
          0.8762E-02         -0.5291E-01          0.0000E+00
          0.8422E-02         -0.4712E-01          0.0000E+00
          0.8046E-02         -0.4155E-01          0.0000E+00
          0.7633E-02         -0.3623E-01          0.0000E+00
          0.7184E-02         -0.3118E-01          0.0000E+00
          0.6698E-02         -0.2642E-01          0.0000E+00
          0.6177E-02         -0.2197E-01          0.0000E+00
          0.5620E-02         -0.1787E-01          0.0000E+00
          0.5026E-02         -0.1412E-01          0.0000E+00
          0.4397E-02         -0.1075E-01          0.0000E+00
          0.3731E-02         -0.7788E-02          0.0000E+00
          0.3029E-02         -0.5253E-02          0.0000E+00
          0.2294E-02         -0.3171E-02          0.0000E+00
          0.1531E-02         -0.1569E-02          0.0000E+00
          0.7578E-03         -0.4890E-03          0.0000E+00
          0.0000E+00          0.0000E+00          0.0000E+00
          0.4866E-02         -0.1115E+00          0.0000E+00
          0.4780E-02         -0.1048E+00          0.0000E+00
          0.4773E-02         -0.9801E-01          0.0000E+00
          0.4795E-02         -0.9120E-01          0.0000E+00
          0.4802E-02         -0.8448E-01          0.0000E+00
          0.4777E-02         -0.7787E-01          0.0000E+00
          0.4716E-02         -0.7139E-01          0.0000E+00
          0.4623E-02         -0.6505E-01          0.0000E+00
          0.4503E-02         -0.5887E-01          0.0000E+00
          0.4358E-02         -0.5288E-01          0.0000E+00
          0.4191E-02         -0.4708E-01          0.0000E+00
          0.4005E-02         -0.4151E-01          0.0000E+00
          0.3799E-02         -0.3618E-01          0.0000E+00
          0.3575E-02         -0.3112E-01          0.0000E+00
          0.3333E-02         -0.2636E-01          0.0000E+00
          0.3072E-02         -0.2191E-01          0.0000E+00
          0.2794E-02         -0.1780E-01          0.0000E+00
          0.2498E-02         -0.1405E-01          0.0000E+00
          0.2184E-02         -0.1068E-01          0.0000E+00
          0.1852E-02         -0.7709E-02          0.0000E+00
          0.1503E-02         -0.5172E-02          0.0000E+00
          0.1137E-02         -0.3092E-02          0.0000E+00
          0.7586E-03         -0.1502E-02          0.0000E+00
          0.3752E-03         -0.4481E-03          0.0000E+00
          0.0000E+00          0.0000E+00          0.0000E+00
         -0.1941E-03         -0.1111E+00          0.0000E+00
         -0.2531E-03         -0.1046E+00          0.0000E+00
         -0.2521E-03         -0.9792E-01          0.0000E+00
         -0.2101E-03         -0.9118E-01          0.0000E+00
         -0.1552E-03         -0.8449E-01          0.0000E+00
         -0.1058E-03         -0.7789E-01          0.0000E+00
         -0.6850E-04         -0.7141E-01          0.0000E+00
         -0.4330E-04         -0.6506E-01          0.0000E+00
         -0.2755E-04         -0.5888E-01          0.0000E+00
         -0.1829E-04         -0.5287E-01          0.0000E+00
         -0.1315E-04         -0.4707E-01          0.0000E+00
         -0.1042E-04         -0.4150E-01          0.0000E+00
         -0.8976E-05         -0.3617E-01          0.0000E+00
         -0.8149E-05         -0.3111E-01          0.0000E+00
         -0.7544E-05         -0.2634E-01          0.0000E+00
         -0.6925E-05         -0.2189E-01          0.0000E+00
         -0.6120E-05         -0.1778E-01          0.0000E+00
         -0.4970E-05         -0.1402E-01          0.0000E+00
         -0.3302E-05         -0.1065E-01          0.0000E+00
         -0.9777E-06         -0.7686E-02          0.0000E+00
          0.1864E-05         -0.5148E-02          0.0000E+00
          0.4458E-05         -0.3067E-02          0.0000E+00
          0.5319E-05         -0.1480E-02          0.0000E+00
          0.3366E-05         -0.4350E-03          0.0000E+00
          0.0000E+00          0.0000E+00          0.0000E+00
         -0.5213E-02         -0.1109E+00          0.0000E+00
         -0.5248E-02         -0.1045E+00          0.0000E+00
         -0.5235E-02         -0.9784E-01          0.0000E+00
         -0.5173E-02         -0.9116E-01          0.0000E+00
         -0.5078E-02         -0.8450E-01          0.0000E+00
         -0.4963E-02         -0.7792E-01          0.0000E+00
         -0.4837E-02         -0.7143E-01          0.0000E+00
         -0.4700E-02         -0.6509E-01          0.0000E+00
         -0.4553E-02         -0.5890E-01          0.0000E+00
         -0.4392E-02         -0.5289E-01          0.0000E+00
         -0.4217E-02         -0.4709E-01          0.0000E+00
         -0.4025E-02         -0.4152E-01          0.0000E+00
         -0.3817E-02         -0.3619E-01          0.0000E+00
         -0.3592E-02         -0.3113E-01          0.0000E+00
         -0.3348E-02         -0.2637E-01          0.0000E+00
         -0.3086E-02         -0.2192E-01          0.0000E+00
         -0.2807E-02         -0.1780E-01          0.0000E+00
         -0.2508E-02         -0.1405E-01          0.0000E+00
         -0.2191E-02         -0.1068E-01          0.0000E+00
         -0.1856E-02         -0.7716E-02          0.0000E+00
         -0.1501E-02         -0.5179E-02          0.0000E+00
         -0.1130E-02         -0.3096E-02          0.0000E+00
         -0.7481E-03         -0.1502E-02          0.0000E+00
         -0.3679E-03         -0.4465E-03          0.0000E+00
          0.0000E+00          0.0000E+00          0.0000E+00
         -0.1023E-01         -0.1108E+00          0.0000E+00
         -0.1025E-01         -0.1044E+00          0.0000E+00
         -0.1022E-01         -0.9779E-01          0.0000E+00
         -0.1014E-01         -0.9115E-01          0.0000E+00
         -0.1000E-01         -0.8452E-01          0.0000E+00
         -0.9829E-02         -0.7795E-01          0.0000E+00
         -0.9619E-02         -0.7148E-01          0.0000E+00
         -0.9375E-02         -0.6513E-01          0.0000E+00
         -0.9099E-02         -0.5894E-01          0.0000E+00
         -0.8789E-02         -0.5294E-01          0.0000E+00
         -0.8445E-02         -0.4714E-01          0.0000E+00
         -0.8066E-02         -0.4157E-01          0.0000E+00
         -0.7651E-02         -0.3624E-01          0.0000E+00
         -0.7200E-02         -0.3119E-01          0.0000E+00
         -0.6714E-02         -0.2643E-01          0.0000E+00
         -0.6192E-02         -0.2198E-01          0.0000E+00
         -0.5633E-02         -0.1788E-01          0.0000E+00
         -0.5038E-02         -0.1413E-01          0.0000E+00
         -0.4406E-02         -0.1076E-01          0.0000E+00
         -0.3738E-02         -0.7802E-02          0.0000E+00
         -0.3032E-02         -0.5267E-02          0.0000E+00
         -0.2290E-02         -0.3181E-02          0.0000E+00
         -0.1522E-02         -0.1572E-02          0.0000E+00
         -0.7489E-03         -0.4853E-03          0.0000E+00
          0.0000E+00          0.0000E+00          0.0000E+00
         -0.1529E-01         -0.1107E+00          0.0000E+00
         -0.1528E-01         -0.1043E+00          0.0000E+00
         -0.1524E-01         -0.9776E-01          0.0000E+00
         -0.1514E-01         -0.9116E-01          0.0000E+00
         -0.1497E-01         -0.8455E-01          0.0000E+00
         -0.1474E-01         -0.7799E-01          0.0000E+00
         -0.1445E-01         -0.7153E-01          0.0000E+00
         -0.1410E-01         -0.6519E-01          0.0000E+00
         -0.1370E-01         -0.5901E-01          0.0000E+00
         -0.1324E-01         -0.5301E-01          0.0000E+00
         -0.1272E-01         -0.4722E-01          0.0000E+00
         -0.1216E-01         -0.4165E-01          0.0000E+00
         -0.1154E-01         -0.3633E-01          0.0000E+00
         -0.1086E-01         -0.3129E-01          0.0000E+00
         -0.1013E-01         -0.2653E-01          0.0000E+00
         -0.9348E-02         -0.2209E-01          0.0000E+00
         -0.8510E-02         -0.1799E-01          0.0000E+00
         -0.7619E-02         -0.1425E-01          0.0000E+00
         -0.6673E-02         -0.1090E-01          0.0000E+00
         -0.5673E-02         -0.7942E-02          0.0000E+00
         -0.4618E-02         -0.5413E-02          0.0000E+00
         -0.3507E-02         -0.3328E-02          0.0000E+00
         -0.2345E-02         -0.1701E-02          0.0000E+00
         -0.1156E-02         -0.5620E-03          0.0000E+00
          0.0000E+00          0.0000E+00          0.0000E+00
         -0.2039E-01         -0.1107E+00          0.0000E+00
         -0.2037E-01         -0.1043E+00          0.0000E+00
         -0.2032E-01         -0.9775E-01          0.0000E+00
         -0.2021E-01         -0.9117E-01          0.0000E+00
         -0.2001E-01         -0.8459E-01          0.0000E+00
         -0.1972E-01         -0.7805E-01          0.0000E+00
         -0.1935E-01         -0.7159E-01          0.0000E+00
         -0.1890E-01         -0.6527E-01          0.0000E+00
         -0.1837E-01         -0.5909E-01          0.0000E+00
         -0.1776E-01         -0.5311E-01          0.0000E+00
         -0.1708E-01         -0.4732E-01          0.0000E+00
         -0.1633E-01         -0.4176E-01          0.0000E+00
         -0.1550E-01         -0.3646E-01          0.0000E+00
         -0.1460E-01         -0.3142E-01          0.0000E+00
         -0.1362E-01         -0.2668E-01          0.0000E+00
         -0.1258E-01         -0.2225E-01          0.0000E+00
         -0.1146E-01         -0.1816E-01          0.0000E+00
         -0.1028E-01         -0.1443E-01          0.0000E+00
         -0.9017E-02         -0.1108E-01          0.0000E+00
         -0.7686E-02         -0.8137E-02          0.0000E+00
         -0.6284E-02         -0.5617E-02          0.0000E+00
         -0.4810E-02         -0.3538E-02          0.0000E+00
         -0.3259E-02         -0.1906E-02          0.0000E+00
         -0.1625E-02         -0.7037E-03          0.0000E+00
          0.0000E+00          0.0000E+00          0.0000E+00
         -0.2553E-01         -0.1107E+00          0.0000E+00
         -0.2553E-01         -0.1043E+00          0.0000E+00
         -0.2550E-01         -0.9776E-01          0.0000E+00
         -0.2538E-01         -0.9120E-01          0.0000E+00
         -0.2516E-01         -0.8463E-01          0.0000E+00
         -0.2483E-01         -0.7811E-01          0.0000E+00
         -0.2438E-01         -0.7167E-01          0.0000E+00
         -0.2382E-01         -0.6536E-01          0.0000E+00
         -0.2315E-01         -0.5920E-01          0.0000E+00
         -0.2239E-01         -0.5322E-01          0.0000E+00
         -0.2154E-01         -0.4745E-01          0.0000E+00
         -0.2060E-01         -0.4191E-01          0.0000E+00
         -0.1956E-01         -0.3661E-01          0.0000E+00
         -0.1843E-01         -0.3159E-01          0.0000E+00
         -0.1722E-01         -0.2686E-01          0.0000E+00
         -0.1591E-01         -0.2244E-01          0.0000E+00
         -0.1452E-01         -0.1837E-01          0.0000E+00
         -0.1303E-01         -0.1465E-01          0.0000E+00
         -0.1146E-01         -0.1132E-01          0.0000E+00
         -0.9800E-02         -0.8384E-02          0.0000E+00
         -0.8054E-02         -0.5877E-02          0.0000E+00
         -0.6225E-02         -0.3810E-02          0.0000E+00
         -0.4309E-02         -0.2187E-02          0.0000E+00
         -0.2287E-02         -0.9833E-03          0.0000E+00
          0.0000E+00          0.0000E+00          0.0000E+00
